  MPI-parallelism will be employed.
------------------------------------------------------------
          Invoking FHI-aims ...
          Version 150406
          Git rev. (modified): 366c14c Merge branch master of fhiaims.rzberlin.mp[...]
          Compiled on 2015/04/08 at 13:51:24 on host Dell-Tower-TullyLab.

          When using FHI-aims, please cite the following reference:

          Volker Blum, Ralf Gehrke, Felix Hanke, Paula Havu,
          Ville Havu, Xinguo Ren, Karsten Reuter, and Matthias Scheffler,
          'Ab Initio Molecular Simulations with Numeric Atom-Centered Orbitals: FHI-aims',
          Computer Physics Communications 180, 2175-2196 (2009)

          For any questions about FHI-aims, please visit the aimsclub website
          with its forums and wiki. Contributions to both the forums and the
          wiki are warmly encouraged - they are for you, and everyone is welcome there.

------------------------------------------------------------

  Date     :  20150408, Time     :  160054.164
  Time zero on CPU 1             :   0.315910000000000E-01  s.
  Internal wall clock time zero  :           197740854.164  s.

  Using        1 parallel tasks.
  Task        0 on host Dell-Tower-TullyLab reporting.

  Performing system and environment tests:
  | Environment variable OMP_NUM_THREADS correctly set to 1.
  | Stacksize not measured: no C compiler
  | Checking for scalapack...
  | No scalapack compiled in.

  Obtaining array dimensions for all initial allocations:
  
  -----------------------------------------------------------------------
  Parsing control.in (first pass over file, find array dimensions only).
  The contents of control.in will be repeated verbatim below
  unless switched off by setting 'verbatim_writeout .false.' .
  in the first line of control.in .
  -----------------------------------------------------------------------
  
  #=====================================================
  #FHI-aims file: ./control.in
  #Created using the Atomic Simulation Environment (ASE)
  #
  #List of parameters used to initialize the calculator:
  #=====================================================
  #
  relativistic                       atomic_zora scalar
  xc                                 pbe
  spin                               collinear
  default_initial_moment 0
  #
  sc_accuracy_eev                    0.001
  sc_iter_limit                      100
  sc_accuracy_etot                   1e-06
  sc_accuracy_forces                 0.0001
  occupation_type                    gaussian 0.1
  sc_accuracy_rho                    1e-06
  #
  relax_geometry bfgs 0.01
  k_grid 2 2 2
  #
  #
  KS_method                          elpa
  
  #this one outputs a list of kpoints
  output k_point_list
  output band  0.000000    0.000000    0.00000   0.000000    0.000000    0.500000 2
  output band  0.000000    0.500000    0.00000   0.000000    0.500000    0.500000 2
  output band  0.500000    0.000000    0.00000   0.500000    0.000000    0.500000 2
  output band  0.500000    0.500000    0.00000   0.500000    0.500000    0.500000 2
  output eigenvectors
  output overlap_matrix
  output hamiltonian_matrix
  #=======================================================
  
  ################################################################################
  #
  #  FHI-aims code project
  #  VB, Fritz-Haber Institut, 2009
  #
  #  Suggested "light" defaults for H atom (to be pasted into control.in file)
  #  Be sure to double-check any results obtained with these settings for post-processing,
  #  e.g., with the "tight" defaults and larger basis sets.
  #
  ################################################################################
    species        H
  #     global species definitions
      nucleus             1
      mass                1.00794
  #
      l_hartree           4
  #
      cut_pot             3.5  1.5  1.0
      basis_dep_cutoff    1e-4
  #
      radial_base         24 5.0
      radial_multiplier   1
      angular_grids       specified
        division   0.2421   50
        division   0.3822  110
        division   0.4799  194
        division   0.5341  302
  #      division   0.5626  434
  #      division   0.5922  590
  #      division   0.6542  770
  #      division   0.6868 1202
  #      outer_grid  770
        outer_grid  302
  hirshfeld_param 6.500 4.500 3.100
  ################################################################################
  #
  #  Definition of "minimal" basis
  #
  ################################################################################
  #     valence basis states
      valence      1  s   1.
  #     ion occupancy
      ion_occ      1  s   0.5
  ################################################################################
  #
  #  Suggested additional basis functions. For production calculations,
  #  uncomment them one after another (the most important basis functions are
  #  listed first).
  #
  #  Basis constructed for dimers: 0.5 A, 0.7 A, 1.0 A, 1.5 A, 2.5 A
  #
  ################################################################################
  #  "First tier" - improvements: -1014.90 meV to -62.69 meV
       hydro 2 s 2.1
       hydro 2 p 3.5
  #  "Second tier" - improvements: -12.89 meV to -1.83 meV
  #     hydro 1 s 0.85
  #     hydro 2 p 3.7
  #     hydro 2 s 1.2
  #     hydro 3 d 7
  #  "Third tier" - improvements: -0.25 meV to -0.12 meV
  #     hydro 4 f 11.2
  #     hydro 3 p 4.8
  #     hydro 4 d 9
  #     hydro 3 s 3.2
  ################################################################################
  #
  #  FHI-aims code project
  #  VB, Fritz-Haber Institut, 2009
  #
  #  Suggested "light" defaults for Pd atom (to be pasted into control.in file)
  #  Be sure to double-check any results obtained with these settings for post-processing,
  #  e.g., with the "tight" defaults and larger basis sets.
  #
  ################################################################################
    species        Pd
  #     global species definitions
      nucleus             46
      mass                106.42
  #
      l_hartree           4
  #
      cut_pot             3.5  1.5  1.0
      basis_dep_cutoff    1e-4
  #
      radial_base         62 5.0
      radial_multiplier   1
      angular_grids specified
        division   0.5211   50
        division   0.9161  110
        division   1.2296  194
        division   1.5678  302
  #      division   1.9785  434
  #      division   2.0474  590
  #      division   2.1195  770
  #      division   2.1568  974
  #      division   2.7392 1202
  #       outer_grid  974
         outer_grid  302
  hirshfeld_param 102.00 13.900 3.0600
  ################################################################################
  #
  #  Definition of "minimal" basis
  #
  ################################################################################
  #     valence basis states
      valence      5  s   1.
      valence      4  p   6.
      valence      4  d   9.
  #     ion occupancy
      ion_occ     5  s   0.
      ion_occ     4  p   6.
      ion_occ     4  d   8.
  ################################################################################
  #
  #  Suggested additional basis functions. For production calculations,
  #  uncomment them one after another (the most important basis functions are
  #  listed first).
  #
  #  Constructed for dimers: 2.0 A, 2.275 A, 2.75 A, 3.75 A
  #
  ################################################################################
  #  "First tier" - max. impr. -120.76  meV, min. impr. -5.71 meV
       ionic 5 p auto
       hydro 4 f 8
  #     hydro 5 g 10
       hydro 3 s 2.6
       hydro 3 d 2.5
  #  "Second tier" - max. impr. -5.00  meV, min. impr. -0.62 meV
  #     hydro 5 f 17.2
  #     hydro 6 h 14
  #     hydro 4 d 4
  #     hydro 5 f 7.6
  #     hydro 3 p 3.3
  #     hydro 4 s 9.4
  #  "Third tier" - max. impr. -0.54  meV, min. impr. -0.14 meV
  #     hydro 4 f 20
  #     hydro 5 g 12.8
  #     hydro 5 d 9.8
  #     hydro 6 h 15.2
  #     hydro 5 s 10
  #     hydro 6 p 9.8
  #  "Fourth tier" - max. impr. -0.15  meV, min. impr. -0.05 meV
  #     hydro 5 f 9.2
  #     hydro 2 s 5.6
  #     hydro 5 f 43.2
  #     hydro 5 d 13.2
  #     hydro 5 g 14
  #     hydro 4 p 4.7
  
  -----------------------------------------------------------------------
  Completed first pass over input file control.in .
  -----------------------------------------------------------------------
  
  
  -----------------------------------------------------------------------
  Parsing geometry.in (first pass over file, find array dimensions only).
  The contents of geometry.in will be repeated verbatim below
  unless switched off by setting 'verbatim_writeout .false.' .
  in the first line of geometry.in .
  -----------------------------------------------------------------------
  
  #
  # This is the geometry file that corresponds to the current relaxation step.
  # If you do not want this file to be written, set the "write_restart_geometry" flag to .false.
  #
  lattice_vector 10.0 0.0 0.0
  lattice_vector 0.0 10.0 0.0
  lattice_vector 0.0 0.0 10.0
  atom       1.39300036      1.39300036      1.52494116 H
  atom       1.39300036      1.39300036      2.27505884 H
  #
  
  -----------------------------------------------------------------------
  Completed first pass over input file geometry.in .
  -----------------------------------------------------------------------
  

  Basic array size parameters:
  | Number of species                 :        2
  | Number of atoms                   :        2
  | Number of lattice vectors         :        3
  | Max. basis fn. angular momentum   :        3
  | Max. atomic/ionic basis occupied n:        5
  | Max. number of basis fn. types    :        3
  | Max. radial fns per species/type  :       10
  | Max. logarithmic grid size        :     1444
  | Max. radial integration grid size :       62
  | Max. angular integration grid size:      302
  | Max. angular grid division number :        8
  | Radial grid for Hartree potential :     1444
  | Number of spin channels           :        2

------------------------------------------------------------
          Reading file control.in.
------------------------------------------------------------
  MPI-parallelism will be employed.
------------------------------------------------------------
          Invoking FHI-aims ...
          Version 150406
          Git rev. (modified): 366c14c Merge branch master of fhiaims.rzberlin.mp[...]
          Compiled on 2015/04/08 at 13:51:24 on host Dell-Tower-TullyLab.

  Scalar relativistic treatment of kinetic energy: on-site free-atom approximation to ZORA.
          When using FHI-aims, please cite the following reference:

  XC: Using PBE gradient-corrected functionals.
          Volker Blum, Ralf Gehrke, Felix Hanke, Paula Havu,
          Ville Havu, Xinguo Ren, Karsten Reuter, and Matthias Scheffler,
  Spin treatment: Spin density functional theory - collinear spins.
          'Ab Initio Molecular Simulations with Numeric Atom-Centered Orbitals: FHI-aims',
          Computer Physics Communications 180, 2175-2196 (2009)

          For any questions about FHI-aims, please visit the aimsclub website
          with its forums and wiki. Contributions to both the forums and the
  Initial spin moment per atom:   0.0000
          wiki are warmly encouraged - they are for you, and everyone is welcome there.

------------------------------------------------------------
  Convergence accuracy of sum of eigenvalues:  0.1000E-02
  Maximum number of s.-c. iterations  :   100
  Convergence accuracy of total energy:  0.1000E-05
  Convergence accuracy of forces:  0.1000E-03
  Occupation type: Gaussian broadening, width =   0.100000E+00 eV.
  Convergence accuracy of self-consistent charge density:  0.1000E-05
  Geometry relaxation: Modified BFGS - TRM (trust radius method, i.e., trusted quadratic extrapolation).

  Convergence accuracy for geometry relaxation: Maximum force <   0.100000E-01 eV/A.
  Found k-point grid:         2         2         2
  Kohn-Sham eigenvalues and eigenfunctions calculated by the ELPA eigensolver library.
  List of k-points will be written out.
  Date     :  20150408, Time     :  160054.165

  Plot band    1
  | begin  0.000000  0.000000  0.000000
  | end    0.000000  0.000000  0.500000
  | number of points:    2
  Time zero on CPU 1             :   0.346680000000000E-01  s.

  Plot band    2
  | begin  0.000000  0.500000  0.000000
  | end    0.000000  0.500000  0.500000
  | number of points:    2
  Internal wall clock time zero  :           197740854.165  s.

  Plot band    3

  | begin  0.500000  0.000000  0.000000
  | end    0.500000  0.000000  0.500000
  | number of points:    2
  Using        1 parallel tasks.

  Plot band    4
  Task        0 on host Dell-Tower-TullyLab reporting.

  Performing system and environment tests:
  | begin  0.500000  0.500000  0.000000
  | end    0.500000  0.500000  0.500000
  | number of points:    2
  Kohn-Sham eigenvectors will be written out.
  | Environment variable OMP_NUM_THREADS correctly set to 1.
  The overlap matrix will be written out for the k-points requested by 'output band'.
  The hamiltonian matrix will be written out for the k-points requested by 'output band'.
  | Stacksize not measured: no C compiler
  | Checking for scalapack...
  | No scalapack compiled in.

  Obtaining array dimensions for all initial allocations:
  
  -----------------------------------------------------------------------
  Parsing control.in (first pass over file, find array dimensions only).
  The contents of control.in will be repeated verbatim below

  Reading configuration options for species H                   .
  unless switched off by setting 'verbatim_writeout .false.' .
  in the first line of control.in .
  -----------------------------------------------------------------------
  | Found nuclear charge :   1.0000
  
  | Found atomic mass :    1.0079400000000001      amu
  | Found l_max for Hartree potential  :   4
  #=====================================================
  | Found cutoff potl. onset [A], width [A], scale factor :    3.50000    1.50000    1.00000
  | Threshold for basis-dependent cutoff potential is   0.100000E-03
  #FHI-aims file: ./control.in
  #Created using the Atomic Simulation Environment (ASE)
  | Found data for basic radial integration grid :    24 points, outermost radius =    5.000 A
  #
  #List of parameters used to initialize the calculator:
  | Found multiplier for basic radial grid :   1
  | Found angular grid specification: user-specified.
  #=====================================================
  #
  relativistic                       atomic_zora scalar
  xc                                 pbe
  spin                               collinear
  | Specified grid contains     5 separate shells.
  | Check grid settings after all constraints further below.
  | Found explicit parameters for TS-vdw correction:
  default_initial_moment 0
  |    C6    =   6.500000
  |    alpha =   4.500000
  |    R0    =   3.100000
  #
  sc_accuracy_eev                    0.001
  sc_iter_limit                      100
  sc_accuracy_etot                   1e-06
  | Found free-atom valence shell :  1 s   1.000
  | Found free-ion valence shell :  1 s   0.500
  sc_accuracy_forces                 0.0001
  occupation_type                    gaussian 0.1
  | Found hydrogenic basis function :  2 s   2.100
  sc_accuracy_rho                    1e-06
  | Found hydrogenic basis function :  2 p   3.500
  #
  relax_geometry bfgs 0.01
  k_grid 2 2 2
  #
  #
  KS_method                          elpa
  
  Species H                   : Missing cutoff potential type.
  Defaulting to exp(1/x)/(1-x)^2 type cutoff potential.
  Species H : No 'logarithmic' tag. Using default grid for free atom:
  #this one outputs a list of kpoints
  output k_point_list
  | Default logarithmic grid data [bohr] : 0.1000E-03 0.1000E+03 0.1012E+01
  Species H : On-site basis accuracy parameter (for Gram-Schmidt orthonormalisation) not specified.
  Using default value basis_acc =  0.1000000E-03.
  Species H                   : Using default innermost maximum threshold i_radial=  2 for radial functions.
  output band  0.000000    0.000000    0.00000   0.000000    0.000000    0.500000 2
  Species H                   : Default cutoff onset for free atom density etc. : 0.35000000E+01 AA.
  Species H                   : Basic radial grid will be enhanced according to radial_multiplier =   1, to contain    24 grid points.
  output band  0.000000    0.500000    0.00000   0.000000    0.500000    0.500000 2

  Reading configuration options for species Pd                  .
  output band  0.500000    0.000000    0.00000   0.500000    0.000000    0.500000 2
  output band  0.500000    0.500000    0.00000   0.500000    0.500000    0.500000 2
  | Found nuclear charge :  46.0000
  output eigenvectors
  | Found atomic mass :    106.42000000000000      amu
  | Found l_max for Hartree potential  :   4
  output overlap_matrix
  output hamiltonian_matrix
  | Found cutoff potl. onset [A], width [A], scale factor :    3.50000    1.50000    1.00000
  #=======================================================
  | Threshold for basis-dependent cutoff potential is   0.100000E-03
  
  ################################################################################
  | Found data for basic radial integration grid :    62 points, outermost radius =    5.000 A
  | Found multiplier for basic radial grid :   1
  #
  #  FHI-aims code project
  | Found angular grid specification: user-specified.
  #  VB, Fritz-Haber Institut, 2009
  #
  #  Suggested "light" defaults for H atom (to be pasted into control.in file)
  #  Be sure to double-check any results obtained with these settings for post-processing,
  #  e.g., with the "tight" defaults and larger basis sets.
  #
  ################################################################################
  | Specified grid contains     5 separate shells.
  | Check grid settings after all constraints further below.
    species        H
  | Found explicit parameters for TS-vdw correction:
  |    C6    = 102.000000
  #     global species definitions
      nucleus             1
  |    alpha =  13.900000
  |    R0    =   3.060000
      mass                1.00794
  #
  | Found free-atom valence shell :  5 s   1.000
  | Found free-atom valence shell :  4 p   6.000
      l_hartree           4
  | Found free-atom valence shell :  4 d   9.000
  #
  | Found free-ion valence shell :  5 s   0.000
  | Found free-ion valence shell :  4 p   6.000
      cut_pot             3.5  1.5  1.0
      basis_dep_cutoff    1e-4
  #
  | Found free-ion valence shell :  4 d   8.000
      radial_base         24 5.0
      radial_multiplier   1
  | Found ionic basis function :  5 p , default cutoff radius.
  | Found hydrogenic basis function :  4 f   8.000
      angular_grids       specified
        division   0.2421   50
  | Found hydrogenic basis function :  3 s   2.600
  | Found hydrogenic basis function :  3 d   2.500
        division   0.3822  110
        division   0.4799  194
        division   0.5341  302
  #      division   0.5626  434
  Species Pd                  : Missing cutoff potential type.
  Defaulting to exp(1/x)/(1-x)^2 type cutoff potential.
  Species Pd: No 'logarithmic' tag. Using default grid for free atom:
  #      division   0.5922  590
  #      division   0.6542  770
  | Default logarithmic grid data [bohr] : 0.1000E-03 0.1000E+03 0.1012E+01
  | Will include ionic basis functions of  2.0-fold positive Pd                   ion.
  Species Pd: On-site basis accuracy parameter (for Gram-Schmidt orthonormalisation) not specified.
  #      division   0.6868 1202
  #      outer_grid  770
  Using default value basis_acc =  0.1000000E-03.
  Species Pd                  : Using default innermost maximum threshold i_radial=  2 for radial functions.
  Species Pd                  : Default cutoff onset for free atom density etc. : 0.35000000E+01 AA.
        outer_grid  302
  Species Pd                  : Basic radial grid will be enhanced according to radial_multiplier =   1, to contain    62 grid points.
  hirshfeld_param 6.500 4.500 3.100

  Finished reading input file 'control.in'. Consistency checks are next.

  ################################################################################
  Target number of points in a grid batch is not set. Defaulting to  100
  Method for grid partitioning is not set. Defaulting to parallel hash+maxmin partitioning.
  #
  Batch size limit is not set. Defaulting to    200
  By default, will store active basis functions for each batch.
  If in need of memory, prune_basis_once .false. can be used to disable this option.
  communication_type for Hartree potential was not specified.
  #  Definition of "minimal" basis
  #
  Defaulting to calc_hartree .
  Defaulting to Pulay charge density mixer.
  Pulay mixer: Number of relevant iterations not set.
  Defaulting to    8 iterations.
  ################################################################################
  #     valence basis states
  Pulay mixer: Number of initial linear mixing iterations not set.
  Defaulting to    0 iterations.
  Work space size for distributed Hartree potential not set.
  Defaulting to   0.200000E+03 MB.
  Mixing parameter for charge density mixing has not been set.
      valence      1  s   1.
  Using default: charge_mix_param =     0.2000.
  Mixing parameter for spin density mixing has not been set.
  Using charge_mix_param as default:     0.2000.
  Algorithm-dependent basis array size parameters:
  | n_max_pulay                         :        8
  #     ion occupancy
      ion_occ      1  s   0.5
  No maximum number of relaxation steps, defaulting to     1000
  Default initial Hessian is Lindh matrix (thres = 15.00) plus  0.200000E+01 eV/A^2 times unity.
  ################################################################################
  No maximum energy tolerance for TRM/BFGS moves, defaulting to   0.200000E-03
  No harmonic length scale. Defaulting to   0.250000E-01 A.
  #
  No trust radius initializer. Defaulting to   0.200000E+00 A.
  Handling of forces: Unphysical translation and rotation will be removed from forces.
  #  Suggested additional basis functions. For production calculations,
  #  uncomment them one after another (the most important basis functions are
  #  listed first).
  No accuracy limit for integral partition fn. given. Defaulting to  0.1000E-14.
  No threshold value for u(r) in integrations given. Defaulting to  0.1000E-05.
  No accuracy for occupation numbers given. Defaulting to  0.1000E-07.
  No threshold value for occupation numbers given. Defaulting to  0.0000E+00.
  No accuracy for fermi level given. Defaulting to  0.1000E-19.
  #
  #  Basis constructed for dimers: 0.5 A, 0.7 A, 1.0 A, 1.5 A, 2.5 A
  Maximum # of iterations to find E_F not set. Defaulting to  200.
* WARNING: Requested Scalapack run without having it compiled into the binary.
* Using lapack_fast instead.
  #
  ################################################################################
  Preferred method for the MBD eigenvalue solver ('mbd_eigensolver') not specified in 'control.in'.
  Serial version of FHI-aims: dafault is LAPACK.
  Will not use alltoall communication since running on < 1024 CPUs.
  #  "First tier" - improvements: -1014.90 meV to -62.69 meV
  Output of Kohn-Sham eigenvector components into separate files was explicitly requested.
  | Periodic system: Eigenvector output will happen at the very end of the run, for
  | those bands whose output was requested.
       hydro 2 s 2.1
  Threshold for basis singularities not set.
  Default threshold for basis singularities:  0.1000E-04
  partition_type (choice of integration weights) for integrals was not specified.
  | Using a version of the partition function of Stratmann and coworkers ('stratmann_smoother').
  | At each grid point, the set of atoms used to build the partition table is smoothly restricted to
       hydro 2 p 3.5
  #  "Second tier" - improvements: -12.89 meV to -1.83 meV
  | only those atoms whose free-atom density would be non-zero at that grid point.
  Partitioning for Hartree potential was not defined. Using partition_type for integrals.
  | Adjusted default value of keyword multip_moments_threshold to:       0.10000000E-11
  | This value may affect high angular momentum components of the Hartree potential in periodic systems.
  #     hydro 1 s 0.85
  Angular momentum expansion for Kerker preconditioner not set explicitly.
  | Using default value of   0
  No explicit requirement for turning off preconditioner.
  #     hydro 2 p 3.7
  #     hydro 2 s 1.2
  | By default, it will be turned off when the charge convergence reaches
  | sc_accuracy_rho  =   0.100000E-05
  #     hydro 3 d 7
  #  "Third tier" - improvements: -0.25 meV to -0.12 meV
  | sc_accuracy_eev  =   0.100000E-02
  | sc_accuracy_etot =   0.100000E-05
  #     hydro 4 f 11.2
  #     hydro 3 p 4.8
  No special mixing parameter while Kerker preconditioner is on.
  Using default: charge_mix_param =     0.2000.
  No q(lm)/r^(l+1) cutoff set for long-range Hartree potential.
  | Using default value of  0.100000E-09 .
  | Verify using the multipole_threshold keyword.
  Defaulting to new monopole extrapolation.
  #     hydro 4 d 9
  #     hydro 3 s 3.2
  Density update method: automatic selection selected.
  Using density matrix based charge density update.
  ################################################################################
  Using density matrix based charge density update.
  Using packed matrix style: index .
  Geometry relaxation: A file "geometry.in.next_step" is written out by default after each step.
  | This file contains the geometry of the current relaxation step as well as
  #
  #  FHI-aims code project
  | the current Hessian matrix needed to restart the relaxation algorithm.
  | If you do not want part or all of this information, use the keywords
  | "write_restart_geometry" or "hessian_to_restart_geometry" to switch the output off.
  Defaulting to use time-reversal symmetry for k-point grid.
  #  VB, Fritz-Haber Institut, 2009
  #
------------------------------------------------------------


  #  Suggested "light" defaults for Pd atom (to be pasted into control.in file)
  #  Be sure to double-check any results obtained with these settings for post-processing,
------------------------------------------------------------
          Reading geometry description geometry.in.
------------------------------------------------------------
  #  e.g., with the "tight" defaults and larger basis sets.
  #
  ################################################################################
    species        Pd
  #     global species definitions
      nucleus             46
      mass                106.42
  #
      l_hartree           4
  #
      cut_pot             3.5  1.5  1.0
      basis_dep_cutoff    1e-4
  #
      radial_base         62 5.0
      radial_multiplier   1
      angular_grids specified
        division   0.5211   50
        division   0.9161  110
        division   1.2296  194
        division   1.5678  302
  #      division   1.9785  434
  #      division   2.0474  590
  Input structure read successfully.
  The structure contains        2 atoms,  and a total of          2.000 electrons.
  #      division   2.1195  770
  #      division   2.1568  974

  Input geometry:
  | Unit cell:
  #      division   2.7392 1202
  #       outer_grid  974
  |        10.000000         0.000000         0.000000
  |         0.000000        10.000000         0.000000
         outer_grid  302
  hirshfeld_param 102.00 13.900 3.0600
  |         0.000000         0.000000        10.000000
  | Atomic structure:
  ################################################################################
  |       Atom                x [A]            y [A]            z [A]
  |    1: Species H              1.393000         1.393000         1.524941
  #
  |    2: Species H              1.393000         1.393000         2.275059
  |
  #  Definition of "minimal" basis
  #
  ################################################################################
  #     valence basis states
      valence      5  s   1.

  | The smallest distance between any two atoms is         0.75011768 AA.
  |
      valence      4  p   6.
  | The first atom of this pair is atom number                      1 .
  | The second atom of this pair is atom number                     2 .
      valence      4  d   9.
  | Wigner-Seitz cell of the first atom image           0     0     0 .
  | (The Wigner-Seitz cell of the second atom is 0 0 0  by definition.)

  #     ion occupancy
  Quantities derived from the lattice vectors:
  | Reciprocal lattice vector 1:  0.628319  0.000000  0.000000
      ion_occ     5  s   0.
      ion_occ     4  p   6.
  | Reciprocal lattice vector 2:  0.000000  0.628319  0.000000
  | Reciprocal lattice vector 3:  0.000000  0.000000  0.628319
      ion_occ     4  d   8.
  | Unit cell volume                               :   0.100000E+04  A^3

  Initial moments and charges:
  ################################################################################
  #
  |  Atom   Moment         Charge        Species
  |     1   0.000000E+00   0.000000E+00   H
  #  Suggested additional basis functions. For production calculations,
  |     2   0.000000E+00   0.000000E+00   H

  #  uncomment them one after another (the most important basis functions are
  #  listed first).
  Number of empty states per atom not set in control.in - providing a guess from actual geometry.
  | Total number of empty states used during s.c.f. cycle:        3
  If you use a very high smearing, use empty_states (per atom!) in control.in to increase this value.

  #
  #  Constructed for dimers: 2.0 A, 2.275 A, 2.75 A, 3.75 A
  Structure-dependent array size parameters: 
  | Number of distinct atom types in initial rho :        1
  | Maximum number of distinct radial functions  :       17
  | Maximum number of basis functions            :       10
  | Number of Kohn-Sham states (occupied + empty):        4
------------------------------------------------------------
  #
  ################################################################################

------------------------------------------------------------
          Preparing all fixed parts of the calculation.
------------------------------------------------------------
  #  "First tier" - max. impr. -120.76  meV, min. impr. -5.71 meV
       ionic 5 p auto
       hydro 4 f 8
  Determining machine precision:
     2.2250738585072014E-308
  Setting up grids for atomic and cluster calculations.
  #     hydro 5 g 10
       hydro 3 s 2.6
       hydro 3 d 2.5
  #  "Second tier" - max. impr. -5.00  meV, min. impr. -0.62 meV
  #     hydro 5 f 17.2
  #     hydro 6 h 14
  #     hydro 4 d 4
  #     hydro 5 f 7.6
  #     hydro 3 p 3.3
  #     hydro 4 s 9.4
  #  "Third tier" - max. impr. -0.54  meV, min. impr. -0.14 meV
  #     hydro 4 f 20
  #     hydro 5 g 12.8
  #     hydro 5 d 9.8
  #     hydro 6 h 15.2
  #     hydro 5 s 10
  #     hydro 6 p 9.8
  #  "Fourth tier" - max. impr. -0.15  meV, min. impr. -0.05 meV
  #     hydro 5 f 9.2
  #     hydro 2 s 5.6
  #     hydro 5 f 43.2
  #     hydro 5 d 13.2
  #     hydro 5 g 14
  #     hydro 4 p 4.7
  
  -----------------------------------------------------------------------
  Completed first pass over input file control.in .
  -----------------------------------------------------------------------
  
  
  -----------------------------------------------------------------------
  Parsing geometry.in (first pass over file, find array dimensions only).
  The contents of geometry.in will be repeated verbatim below
  unless switched off by setting 'verbatim_writeout .false.' .
  in the first line of geometry.in .
  -----------------------------------------------------------------------
  
  #
  # This is the geometry file that corresponds to the current relaxation step.
  # If you do not want this file to be written, set the "write_restart_geometry" flag to .false.
  #
  lattice_vector 10.0 0.0 0.0
  lattice_vector 0.0 10.0 0.0
  lattice_vector 0.0 0.0 10.0
  atom       1.39300036      1.39300036      1.52494116 H
  atom       1.39300036      1.39300036      2.27505884 H
  #
  
  -----------------------------------------------------------------------
  Completed first pass over input file geometry.in .
  -----------------------------------------------------------------------
  

  Basic array size parameters:
  | Number of species                 :        2
  | Number of atoms                   :        2
  | Number of lattice vectors         :        3
  | Max. basis fn. angular momentum   :        3
  | Max. atomic/ionic basis occupied n:        5
  | Max. number of basis fn. types    :        3
  | Max. radial fns per species/type  :       10
  | Max. logarithmic grid size        :     1444
  | Max. radial integration grid size :       62
  | Max. angular integration grid size:      302
  | Max. angular grid division number :        8
  | Radial grid for Hartree potential :     1444
  | Number of spin channels           :        2

------------------------------------------------------------
          Reading file control.in.
------------------------------------------------------------
  Scalar relativistic treatment of kinetic energy: on-site free-atom approximation to ZORA.
  XC: Using PBE gradient-corrected functionals.
  Spin treatment: Spin density functional theory - collinear spins.
  Initial spin moment per atom:   0.0000
  Convergence accuracy of sum of eigenvalues:  0.1000E-02
  Maximum number of s.-c. iterations  :   100
  Convergence accuracy of total energy:  0.1000E-05
  Convergence accuracy of forces:  0.1000E-03
  Occupation type: Gaussian broadening, width =   0.100000E+00 eV.
  Convergence accuracy of self-consistent charge density:  0.1000E-05
  Geometry relaxation: Modified BFGS - TRM (trust radius method, i.e., trusted quadratic extrapolation).

  Creating wave function, potential, and density for free atoms.
  Convergence accuracy for geometry relaxation: Maximum force <   0.100000E-01 eV/A.
  Found k-point grid:         2         2         2
  Kohn-Sham eigenvalues and eigenfunctions calculated by the ELPA eigensolver library.
  List of k-points will be written out.

  Plot band    1
  | begin  0.000000  0.000000  0.000000
  | end    0.000000  0.000000  0.500000
  | number of points:    2

  Plot band    2
  | begin  0.000000  0.500000  0.000000
  | end    0.000000  0.500000  0.500000
  | number of points:    2

  Plot band    3
  | begin  0.500000  0.000000  0.000000
  | end    0.500000  0.000000  0.500000
  | number of points:    2

  Plot band    4
  | begin  0.500000  0.500000  0.000000
  | end    0.500000  0.500000  0.500000
  | number of points:    2
  Kohn-Sham eigenvectors will be written out.
  The overlap matrix will be written out for the k-points requested by 'output band'.
  The hamiltonian matrix will be written out for the k-points requested by 'output band'.

  Reading configuration options for species H                   .
  | Found nuclear charge :   1.0000
  | Found atomic mass :    1.0079400000000001      amu
  | Found l_max for Hartree potential  :   4

  Species: H
  | Found cutoff potl. onset [A], width [A], scale factor :    3.50000    1.50000    1.00000
  | Threshold for basis-dependent cutoff potential is   0.100000E-03
  | Found data for basic radial integration grid :    24 points, outermost radius =    5.000 A
  | Found multiplier for basic radial grid :   1
  | Found angular grid specification: user-specified.
  | Specified grid contains     5 separate shells.
  | Check grid settings after all constraints further below.
  | Found explicit parameters for TS-vdw correction:
  |    C6    =   6.500000
  |    alpha =   4.500000
  |    R0    =   3.100000
  | Found free-atom valence shell :  1 s   1.000
  | Found free-ion valence shell :  1 s   0.500
  | Found hydrogenic basis function :  2 s   2.100
  | Found hydrogenic basis function :  2 p   3.500
  Species H                   : Missing cutoff potential type.
  Defaulting to exp(1/x)/(1-x)^2 type cutoff potential.
  Species H : No 'logarithmic' tag. Using default grid for free atom:
  | Default logarithmic grid data [bohr] : 0.1000E-03 0.1000E+03 0.1012E+01
  Species H : On-site basis accuracy parameter (for Gram-Schmidt orthonormalisation) not specified.
  Using default value basis_acc =  0.1000000E-03.
  Species H                   : Using default innermost maximum threshold i_radial=  2 for radial functions.
  Species H                   : Default cutoff onset for free atom density etc. : 0.35000000E+01 AA.
  Species H                   : Basic radial grid will be enhanced according to radial_multiplier =   1, to contain    24 grid points.

  Reading configuration options for species Pd                  .
  | Found nuclear charge :  46.0000
  | Found atomic mass :    106.42000000000000      amu
  | Found l_max for Hartree potential  :   4
  | Found cutoff potl. onset [A], width [A], scale factor :    3.50000    1.50000    1.00000
  | Threshold for basis-dependent cutoff potential is   0.100000E-03
  | Found data for basic radial integration grid :    62 points, outermost radius =    5.000 A
  | Found multiplier for basic radial grid :   1
  | Found angular grid specification: user-specified.
  | Specified grid contains     5 separate shells.
  | Check grid settings after all constraints further below.
  | Found explicit parameters for TS-vdw correction:
  |    C6    = 102.000000
  |    alpha =  13.900000
  |    R0    =   3.060000
  | Found free-atom valence shell :  5 s   1.000
  | Found free-atom valence shell :  4 p   6.000
  | Found free-atom valence shell :  4 d   9.000
  | Found free-ion valence shell :  5 s   0.000
  | Found free-ion valence shell :  4 p   6.000
  | Found free-ion valence shell :  4 d   8.000
  | Found ionic basis function :  5 p , default cutoff radius.
  | Found hydrogenic basis function :  4 f   8.000
  | Found hydrogenic basis function :  3 s   2.600
  | Found hydrogenic basis function :  3 d   2.500
  Species Pd                  : Missing cutoff potential type.
  Defaulting to exp(1/x)/(1-x)^2 type cutoff potential.
  Species Pd: No 'logarithmic' tag. Using default grid for free atom:
  | Default logarithmic grid data [bohr] : 0.1000E-03 0.1000E+03 0.1012E+01
  | Will include ionic basis functions of  2.0-fold positive Pd                   ion.
  Species Pd: On-site basis accuracy parameter (for Gram-Schmidt orthonormalisation) not specified.
  Using default value basis_acc =  0.1000000E-03.
  Species Pd                  : Using default innermost maximum threshold i_radial=  2 for radial functions.
  Species Pd                  : Default cutoff onset for free atom density etc. : 0.35000000E+01 AA.
  Species Pd                  : Basic radial grid will be enhanced according to radial_multiplier =   1, to contain    62 grid points.

  Finished reading input file 'control.in'. Consistency checks are next.

  Target number of points in a grid batch is not set. Defaulting to  100
  Method for grid partitioning is not set. Defaulting to parallel hash+maxmin partitioning.
  Batch size limit is not set. Defaulting to    200
  By default, will store active basis functions for each batch.
  If in need of memory, prune_basis_once .false. can be used to disable this option.
  communication_type for Hartree potential was not specified.
  Defaulting to calc_hartree .
  Defaulting to Pulay charge density mixer.
  Pulay mixer: Number of relevant iterations not set.
  Defaulting to    8 iterations.
  Pulay mixer: Number of initial linear mixing iterations not set.
  Defaulting to    0 iterations.
  Work space size for distributed Hartree potential not set.
  Defaulting to   0.200000E+03 MB.
  Mixing parameter for charge density mixing has not been set.
  Using default: charge_mix_param =     0.2000.
  Mixing parameter for spin density mixing has not been set.
  Using charge_mix_param as default:     0.2000.
  Algorithm-dependent basis array size parameters:
  | n_max_pulay                         :        8
  No maximum number of relaxation steps, defaulting to     1000
  Default initial Hessian is Lindh matrix (thres = 15.00) plus  0.200000E+01 eV/A^2 times unity.
  No maximum energy tolerance for TRM/BFGS moves, defaulting to   0.200000E-03
  No harmonic length scale. Defaulting to   0.250000E-01 A.
  No trust radius initializer. Defaulting to   0.200000E+00 A.
  Handling of forces: Unphysical translation and rotation will be removed from forces.
  No accuracy limit for integral partition fn. given. Defaulting to  0.1000E-14.
  No threshold value for u(r) in integrations given. Defaulting to  0.1000E-05.
  No accuracy for occupation numbers given. Defaulting to  0.1000E-07.
  No threshold value for occupation numbers given. Defaulting to  0.0000E+00.
  No accuracy for fermi level given. Defaulting to  0.1000E-19.
  Maximum # of iterations to find E_F not set. Defaulting to  200.
* WARNING: Requested Scalapack run without having it compiled into the binary.
* Using lapack_fast instead.
  Preferred method for the MBD eigenvalue solver ('mbd_eigensolver') not specified in 'control.in'.
  Serial version of FHI-aims: dafault is LAPACK.
  Will not use alltoall communication since running on < 1024 CPUs.
  Output of Kohn-Sham eigenvector components into separate files was explicitly requested.
  | Periodic system: Eigenvector output will happen at the very end of the run, for
  | those bands whose output was requested.
  Threshold for basis singularities not set.
  Default threshold for basis singularities:  0.1000E-04
  partition_type (choice of integration weights) for integrals was not specified.
  | Using a version of the partition function of Stratmann and coworkers ('stratmann_smoother').
  | At each grid point, the set of atoms used to build the partition table is smoothly restricted to
  | only those atoms whose free-atom density would be non-zero at that grid point.
  Partitioning for Hartree potential was not defined. Using partition_type for integrals.
  | Adjusted default value of keyword multip_moments_threshold to:       0.10000000E-11
  | This value may affect high angular momentum components of the Hartree potential in periodic systems.
  Angular momentum expansion for Kerker preconditioner not set explicitly.
  | Using default value of   0
  No explicit requirement for turning off preconditioner.
  | By default, it will be turned off when the charge convergence reaches
  | sc_accuracy_rho  =   0.100000E-05
  | sc_accuracy_eev  =   0.100000E-02
  | sc_accuracy_etot =   0.100000E-05
  No special mixing parameter while Kerker preconditioner is on.
  Using default: charge_mix_param =     0.2000.
  No q(lm)/r^(l+1) cutoff set for long-range Hartree potential.
  | Using default value of  0.100000E-09 .
  | Verify using the multipole_threshold keyword.
  Defaulting to new monopole extrapolation.
  Density update method: automatic selection selected.
  Using density matrix based charge density update.
  Using density matrix based charge density update.
  Using packed matrix style: index .
  Geometry relaxation: A file "geometry.in.next_step" is written out by default after each step.
  | This file contains the geometry of the current relaxation step as well as
  | the current Hessian matrix needed to restart the relaxation algorithm.
  | If you do not want part or all of this information, use the keywords
  | "write_restart_geometry" or "hessian_to_restart_geometry" to switch the output off.
  Defaulting to use time-reversal symmetry for k-point grid.
------------------------------------------------------------


------------------------------------------------------------
          Reading geometry description geometry.in.
------------------------------------------------------------
  Input structure read successfully.
  The structure contains        2 atoms,  and a total of          2.000 electrons.

  Input geometry:
  | Unit cell:
  |        10.000000         0.000000         0.000000
  |         0.000000        10.000000         0.000000
  |         0.000000         0.000000        10.000000
  | Atomic structure:
  |       Atom                x [A]            y [A]            z [A]
  |    1: Species H              1.393000         1.393000         1.524941
  |    2: Species H              1.393000         1.393000         2.275059
  |

  | The smallest distance between any two atoms is         0.75011768 AA.
  |
  | The first atom of this pair is atom number                      1 .
  | The second atom of this pair is atom number                     2 .
  | Wigner-Seitz cell of the first atom image           0     0     0 .
  | (The Wigner-Seitz cell of the second atom is 0 0 0  by definition.)

  Quantities derived from the lattice vectors:
  | Reciprocal lattice vector 1:  0.628319  0.000000  0.000000
  | Reciprocal lattice vector 2:  0.000000  0.628319  0.000000
  | Reciprocal lattice vector 3:  0.000000  0.000000  0.628319
  | Unit cell volume                               :   0.100000E+04  A^3

  Initial moments and charges:
  |  Atom   Moment         Charge        Species
  |     1   0.000000E+00   0.000000E+00   H
  |     2   0.000000E+00   0.000000E+00   H

  Number of empty states per atom not set in control.in - providing a guess from actual geometry.
  | Total number of empty states used during s.c.f. cycle:        3
  If you use a very high smearing, use empty_states (per atom!) in control.in to increase this value.

  Structure-dependent array size parameters: 
  | Number of distinct atom types in initial rho :        1
  | Maximum number of distinct radial functions  :       17
  | Maximum number of basis functions            :       10
  | Number of Kohn-Sham states (occupied + empty):        4
------------------------------------------------------------

------------------------------------------------------------
          Preparing all fixed parts of the calculation.
------------------------------------------------------------
  Determining machine precision:
     2.2250738585072014E-308
  Setting up grids for atomic and cluster calculations.

  Creating wave function, potential, and density for free atoms.

  Species: H
  MPI-parallelism will be employed.
------------------------------------------------------------
          Invoking FHI-aims ...
          Version 150406
          Git rev. (modified): 366c14c Merge branch master of fhiaims.rzberlin.mp[...]
          Compiled on 2015/04/08 at 13:51:24 on host Dell-Tower-TullyLab.

          When using FHI-aims, please cite the following reference:

          Volker Blum, Ralf Gehrke, Felix Hanke, Paula Havu,
          Ville Havu, Xinguo Ren, Karsten Reuter, and Matthias Scheffler,
          'Ab Initio Molecular Simulations with Numeric Atom-Centered Orbitals: FHI-aims',
          Computer Physics Communications 180, 2175-2196 (2009)

          For any questions about FHI-aims, please visit the aimsclub website
          with its forums and wiki. Contributions to both the forums and the
          wiki are warmly encouraged - they are for you, and everyone is welcome there.

------------------------------------------------------------

  Date     :  20150408, Time     :  160054.176
  Time zero on CPU 1             :   0.377340000000000E-01  s.
  Internal wall clock time zero  :           197740854.176  s.

  Using        1 parallel tasks.
  Task        0 on host Dell-Tower-TullyLab reporting.

  Performing system and environment tests:
  | Environment variable OMP_NUM_THREADS correctly set to 1.
  | Stacksize not measured: no C compiler
  | Checking for scalapack...
  | No scalapack compiled in.

  Obtaining array dimensions for all initial allocations:
  
  -----------------------------------------------------------------------
  Parsing control.in (first pass over file, find array dimensions only).
  The contents of control.in will be repeated verbatim below
  unless switched off by setting 'verbatim_writeout .false.' .
  in the first line of control.in .
  -----------------------------------------------------------------------
  
  #=====================================================
  #FHI-aims file: ./control.in
  #Created using the Atomic Simulation Environment (ASE)
  #
  #List of parameters used to initialize the calculator:
  #=====================================================
  #
  relativistic                       atomic_zora scalar
  xc                                 pbe
  spin                               collinear
  default_initial_moment 0
  #
  sc_accuracy_eev                    0.001
  sc_iter_limit                      100
  sc_accuracy_etot                   1e-06
  sc_accuracy_forces                 0.0001
  occupation_type                    gaussian 0.1
  sc_accuracy_rho                    1e-06
  #
  relax_geometry bfgs 0.01
  k_grid 2 2 2
  #
  #
  KS_method                          elpa
  
  #this one outputs a list of kpoints
  output k_point_list
  output band  0.000000    0.000000    0.00000   0.000000    0.000000    0.500000 2
  output band  0.000000    0.500000    0.00000   0.000000    0.500000    0.500000 2
  output band  0.500000    0.000000    0.00000   0.500000    0.000000    0.500000 2
  output band  0.500000    0.500000    0.00000   0.500000    0.500000    0.500000 2
  output eigenvectors
  output overlap_matrix
  output hamiltonian_matrix
  #=======================================================
  
  ################################################################################
  #
  #  FHI-aims code project
  #  VB, Fritz-Haber Institut, 2009
  #
  #  Suggested "light" defaults for H atom (to be pasted into control.in file)
  #  Be sure to double-check any results obtained with these settings for post-processing,
  #  e.g., with the "tight" defaults and larger basis sets.
  #
  ################################################################################
    species        H
  #     global species definitions
      nucleus             1
      mass                1.00794
  #
      l_hartree           4
  #
      cut_pot             3.5  1.5  1.0
      basis_dep_cutoff    1e-4
  #
      radial_base         24 5.0
      radial_multiplier   1
      angular_grids       specified
        division   0.2421   50
        division   0.3822  110
        division   0.4799  194
        division   0.5341  302
  #      division   0.5626  434
  #      division   0.5922  590
  #      division   0.6542  770
  #      division   0.6868 1202
  #      outer_grid  770
        outer_grid  302
  hirshfeld_param 6.500 4.500 3.100
  ################################################################################
  #
  #  Definition of "minimal" basis
  #
  ################################################################################
  #     valence basis states
      valence      1  s   1.
  #     ion occupancy
      ion_occ      1  s   0.5
  ################################################################################
  #
  #  Suggested additional basis functions. For production calculations,
  #  uncomment them one after another (the most important basis functions are
  #  listed first).
  #
  #  Basis constructed for dimers: 0.5 A, 0.7 A, 1.0 A, 1.5 A, 2.5 A
  #
  ################################################################################
  #  "First tier" - improvements: -1014.90 meV to -62.69 meV
       hydro 2 s 2.1
       hydro 2 p 3.5
  #  "Second tier" - improvements: -12.89 meV to -1.83 meV
  #     hydro 1 s 0.85
  #     hydro 2 p 3.7
  #     hydro 2 s 1.2
  #     hydro 3 d 7
  #  "Third tier" - improvements: -0.25 meV to -0.12 meV
  #     hydro 4 f 11.2
  #     hydro 3 p 4.8
  #     hydro 4 d 9
  MPI-parallelism will be employed.
  #     hydro 3 s 3.2
  ################################################################################
  #
  #  FHI-aims code project
  #  VB, Fritz-Haber Institut, 2009
------------------------------------------------------------
  #
  #  Suggested "light" defaults for Pd atom (to be pasted into control.in file)
          Invoking FHI-aims ...
          Version 150406
  #  Be sure to double-check any results obtained with these settings for post-processing,
  #  e.g., with the "tight" defaults and larger basis sets.
          Git rev. (modified): 366c14c Merge branch master of fhiaims.rzberlin.mp[...]
          Compiled on 2015/04/08 at 13:51:24 on host Dell-Tower-TullyLab.

          When using FHI-aims, please cite the following reference:
  #
  ################################################################################
    species        Pd

          Volker Blum, Ralf Gehrke, Felix Hanke, Paula Havu,
          Ville Havu, Xinguo Ren, Karsten Reuter, and Matthias Scheffler,
          'Ab Initio Molecular Simulations with Numeric Atom-Centered Orbitals: FHI-aims',
          Computer Physics Communications 180, 2175-2196 (2009)

          For any questions about FHI-aims, please visit the aimsclub website
          with its forums and wiki. Contributions to both the forums and the
  #     global species definitions
      nucleus             46
          wiki are warmly encouraged - they are for you, and everyone is welcome there.

------------------------------------------------------------
      mass                106.42
  #
      l_hartree           4
  #
      cut_pot             3.5  1.5  1.0
      basis_dep_cutoff    1e-4
  #
      radial_base         62 5.0
      radial_multiplier   1
      angular_grids specified
        division   0.5211   50
        division   0.9161  110

        division   1.2296  194
        division   1.5678  302
  #      division   1.9785  434
  #      division   2.0474  590
  #      division   2.1195  770
  #      division   2.1568  974
  #      division   2.7392 1202
  #       outer_grid  974
         outer_grid  302
  hirshfeld_param 102.00 13.900 3.0600
  ################################################################################
  Date     :  20150408, Time     :  160054.178
  #
  #  Definition of "minimal" basis
  #
  ################################################################################
  #     valence basis states
      valence      5  s   1.
      valence      4  p   6.
  Time zero on CPU 1             :   0.550060000000000E-01  s.
      valence      4  d   9.
  #     ion occupancy
      ion_occ     5  s   0.
      ion_occ     4  p   6.
  Internal wall clock time zero  :           197740854.178  s.

      ion_occ     4  d   8.
  ################################################################################
  #
  Using        1 parallel tasks.
  #  Suggested additional basis functions. For production calculations,
  #  uncomment them one after another (the most important basis functions are
  #  listed first).
  #
  Task        0 on host Dell-Tower-TullyLab reporting.

  Performing system and environment tests:
  #  Constructed for dimers: 2.0 A, 2.275 A, 2.75 A, 3.75 A
  #
  ################################################################################
  | Environment variable OMP_NUM_THREADS correctly set to 1.
  | Stacksize not measured: no C compiler
  | Checking for scalapack...
  | No scalapack compiled in.
  #  "First tier" - max. impr. -120.76  meV, min. impr. -5.71 meV
       ionic 5 p auto

  Obtaining array dimensions for all initial allocations:
  
  -----------------------------------------------------------------------
       hydro 4 f 8
  #     hydro 5 g 10
  Parsing control.in (first pass over file, find array dimensions only).
  The contents of control.in will be repeated verbatim below
  unless switched off by setting 'verbatim_writeout .false.' .
  in the first line of control.in .
  -----------------------------------------------------------------------
  
       hydro 3 s 2.6
       hydro 3 d 2.5
  #  "Second tier" - max. impr. -5.00  meV, min. impr. -0.62 meV
  #=====================================================
  #     hydro 5 f 17.2
  #     hydro 6 h 14
  #     hydro 4 d 4
  #     hydro 5 f 7.6
  #     hydro 3 p 3.3
  #     hydro 4 s 9.4
  #  "Third tier" - max. impr. -0.54  meV, min. impr. -0.14 meV
  #     hydro 4 f 20
  #     hydro 5 g 12.8
  #     hydro 5 d 9.8
  #     hydro 6 h 15.2
  #     hydro 5 s 10
  #     hydro 6 p 9.8
  #  "Fourth tier" - max. impr. -0.15  meV, min. impr. -0.05 meV
  #     hydro 5 f 9.2
  #     hydro 2 s 5.6
  #     hydro 5 f 43.2
  #     hydro 5 d 13.2
  #     hydro 5 g 14
  #     hydro 4 p 4.7
  
  #FHI-aims file: ./control.in
  #Created using the Atomic Simulation Environment (ASE)
  -----------------------------------------------------------------------
  Completed first pass over input file control.in .
  -----------------------------------------------------------------------
  
  
  -----------------------------------------------------------------------
  Parsing geometry.in (first pass over file, find array dimensions only).
  The contents of geometry.in will be repeated verbatim below
  unless switched off by setting 'verbatim_writeout .false.' .
  in the first line of geometry.in .
  -----------------------------------------------------------------------
  
  #
  #
  # This is the geometry file that corresponds to the current relaxation step.
  # If you do not want this file to be written, set the "write_restart_geometry" flag to .false.
  #
  lattice_vector 10.0 0.0 0.0
  lattice_vector 0.0 10.0 0.0
  lattice_vector 0.0 0.0 10.0
  atom       1.39300036      1.39300036      1.52494116 H
  atom       1.39300036      1.39300036      2.27505884 H
  #List of parameters used to initialize the calculator:
  #=====================================================
  #
  relativistic                       atomic_zora scalar
  #
  xc                                 pbe
  spin                               collinear
  default_initial_moment 0
  
  -----------------------------------------------------------------------
  Completed first pass over input file geometry.in .
  -----------------------------------------------------------------------
  

  Basic array size parameters:
  | Number of species                 :        2
  | Number of atoms                   :        2
  | Number of lattice vectors         :        3
  | Max. basis fn. angular momentum   :        3
  | Max. atomic/ionic basis occupied n:        5
  | Max. number of basis fn. types    :        3
  | Max. radial fns per species/type  :       10
  | Max. logarithmic grid size        :     1444
  | Max. radial integration grid size :       62
  | Max. angular integration grid size:      302
  | Max. angular grid division number :        8
  | Radial grid for Hartree potential :     1444
  | Number of spin channels           :        2
  #
  sc_accuracy_eev                    0.001
  sc_iter_limit                      100

  sc_accuracy_etot                   1e-06
  sc_accuracy_forces                 0.0001
  occupation_type                    gaussian 0.1
  sc_accuracy_rho                    1e-06
------------------------------------------------------------
  #
  relax_geometry bfgs 0.01
  k_grid 2 2 2
  #
  #
  KS_method                          elpa
  
          Reading file control.in.
  #this one outputs a list of kpoints
  output k_point_list
  output band  0.000000    0.000000    0.00000   0.000000    0.000000    0.500000 2
  output band  0.000000    0.500000    0.00000   0.000000    0.500000    0.500000 2
  output band  0.500000    0.000000    0.00000   0.500000    0.000000    0.500000 2
  output band  0.500000    0.500000    0.00000   0.500000    0.500000    0.500000 2
  output eigenvectors
  output overlap_matrix
  output hamiltonian_matrix
  #=======================================================
  
  ################################################################################
  #
  #  FHI-aims code project
  #  VB, Fritz-Haber Institut, 2009
  #
  #  Suggested "light" defaults for H atom (to be pasted into control.in file)
  #  Be sure to double-check any results obtained with these settings for post-processing,
  #  e.g., with the "tight" defaults and larger basis sets.
  #
  ################################################################################
    species        H
  #     global species definitions
------------------------------------------------------------
      nucleus             1
      mass                1.00794
  #
      l_hartree           4
  #
      cut_pot             3.5  1.5  1.0
      basis_dep_cutoff    1e-4
  #
      radial_base         24 5.0
      radial_multiplier   1
      angular_grids       specified
        division   0.2421   50
        division   0.3822  110
        division   0.4799  194
        division   0.5341  302
  #      division   0.5626  434
  #      division   0.5922  590
  #      division   0.6542  770
  #      division   0.6868 1202
  #      outer_grid  770
        outer_grid  302
  hirshfeld_param 6.500 4.500 3.100
  ################################################################################
  #
  #  Definition of "minimal" basis
  #
  ################################################################################
  #     valence basis states
      valence      1  s   1.
  #     ion occupancy
      ion_occ      1  s   0.5
  ################################################################################
  #
  #  Suggested additional basis functions. For production calculations,
  #  uncomment them one after another (the most important basis functions are
  #  listed first).
  #
  #  Basis constructed for dimers: 0.5 A, 0.7 A, 1.0 A, 1.5 A, 2.5 A
  #
  ################################################################################
  #  "First tier" - improvements: -1014.90 meV to -62.69 meV
       hydro 2 s 2.1
       hydro 2 p 3.5
  #  "Second tier" - improvements: -12.89 meV to -1.83 meV
  #     hydro 1 s 0.85
  #     hydro 2 p 3.7
  #     hydro 2 s 1.2
  #     hydro 3 d 7
  #  "Third tier" - improvements: -0.25 meV to -0.12 meV
  #     hydro 4 f 11.2
  #     hydro 3 p 4.8
  #     hydro 4 d 9
  #     hydro 3 s 3.2
  ################################################################################
  #
  #  FHI-aims code project
  #  VB, Fritz-Haber Institut, 2009
  #
  #  Suggested "light" defaults for Pd atom (to be pasted into control.in file)
  #  Be sure to double-check any results obtained with these settings for post-processing,
  #  e.g., with the "tight" defaults and larger basis sets.
  #
  ################################################################################
    species        Pd
  #     global species definitions
      nucleus             46
      mass                106.42
  #
      l_hartree           4
  #
      cut_pot             3.5  1.5  1.0
      basis_dep_cutoff    1e-4
  #
      radial_base         62 5.0
      radial_multiplier   1
      angular_grids specified
        division   0.5211   50
        division   0.9161  110
        division   1.2296  194
        division   1.5678  302
  #      division   1.9785  434
  #      division   2.0474  590
  #      division   2.1195  770
  #      division   2.1568  974
  #      division   2.7392 1202
  #       outer_grid  974
         outer_grid  302
  hirshfeld_param 102.00 13.900 3.0600
  ################################################################################
  #
  #  Definition of "minimal" basis
  #
  ################################################################################
  #     valence basis states
      valence      5  s   1.
      valence      4  p   6.
      valence      4  d   9.
  #     ion occupancy
      ion_occ     5  s   0.
      ion_occ     4  p   6.
      ion_occ     4  d   8.
  ################################################################################
  #
  #  Suggested additional basis functions. For production calculations,
  #  uncomment them one after another (the most important basis functions are
  #  listed first).
  #
  #  Constructed for dimers: 2.0 A, 2.275 A, 2.75 A, 3.75 A
  #
  ################################################################################
  #  "First tier" - max. impr. -120.76  meV, min. impr. -5.71 meV
       ionic 5 p auto
       hydro 4 f 8
  #     hydro 5 g 10
       hydro 3 s 2.6
       hydro 3 d 2.5
  #  "Second tier" - max. impr. -5.00  meV, min. impr. -0.62 meV
  #     hydro 5 f 17.2
  #     hydro 6 h 14
  #     hydro 4 d 4
  #     hydro 5 f 7.6
  #     hydro 3 p 3.3
  #     hydro 4 s 9.4
  #  "Third tier" - max. impr. -0.54  meV, min. impr. -0.14 meV
  #     hydro 4 f 20
  #     hydro 5 g 12.8
  #     hydro 5 d 9.8
  #     hydro 6 h 15.2
  #     hydro 5 s 10
  #     hydro 6 p 9.8
  #  "Fourth tier" - max. impr. -0.15  meV, min. impr. -0.05 meV
  #     hydro 5 f 9.2
  #     hydro 2 s 5.6
  #     hydro 5 f 43.2
  #     hydro 5 d 13.2
  #     hydro 5 g 14
  #     hydro 4 p 4.7
  
  Scalar relativistic treatment of kinetic energy: on-site free-atom approximation to ZORA.
  -----------------------------------------------------------------------
  XC: Using PBE gradient-corrected functionals.
  Completed first pass over input file control.in .
  -----------------------------------------------------------------------
  
  Spin treatment: Spin density functional theory - collinear spins.
  
  -----------------------------------------------------------------------
  Parsing geometry.in (first pass over file, find array dimensions only).
  The contents of geometry.in will be repeated verbatim below
  unless switched off by setting 'verbatim_writeout .false.' .
  in the first line of geometry.in .
  -----------------------------------------------------------------------
  
  #
  # This is the geometry file that corresponds to the current relaxation step.
  # If you do not want this file to be written, set the "write_restart_geometry" flag to .false.
  #
  lattice_vector 10.0 0.0 0.0
  lattice_vector 0.0 10.0 0.0
  lattice_vector 0.0 0.0 10.0
  atom       1.39300036      1.39300036      1.52494116 H
  atom       1.39300036      1.39300036      2.27505884 H
  #
  
  -----------------------------------------------------------------------
  Completed first pass over input file geometry.in .
  -----------------------------------------------------------------------
  

  Basic array size parameters:
  | Number of species                 :        2
  | Number of atoms                   :        2
  | Number of lattice vectors         :        3
  | Max. basis fn. angular momentum   :        3
  | Max. atomic/ionic basis occupied n:        5
  | Max. number of basis fn. types    :        3
  | Max. radial fns per species/type  :       10
  | Max. logarithmic grid size        :     1444
  | Max. radial integration grid size :       62
  | Max. angular integration grid size:      302
  | Max. angular grid division number :        8
  | Radial grid for Hartree potential :     1444
  | Number of spin channels           :        2
  Initial spin moment per atom:   0.0000
  Convergence accuracy of sum of eigenvalues:  0.1000E-02

------------------------------------------------------------
          Reading file control.in.
------------------------------------------------------------
  Maximum number of s.-c. iterations  :   100
  Scalar relativistic treatment of kinetic energy: on-site free-atom approximation to ZORA.
  XC: Using PBE gradient-corrected functionals.
  Spin treatment: Spin density functional theory - collinear spins.
  Initial spin moment per atom:   0.0000
  Convergence accuracy of total energy:  0.1000E-05
  Convergence accuracy of sum of eigenvalues:  0.1000E-02
  Maximum number of s.-c. iterations  :   100
  Convergence accuracy of total energy:  0.1000E-05
  Convergence accuracy of forces:  0.1000E-03
  Convergence accuracy of forces:  0.1000E-03
  Occupation type: Gaussian broadening, width =   0.100000E+00 eV.
  Occupation type: Gaussian broadening, width =   0.100000E+00 eV.
  Convergence accuracy of self-consistent charge density:  0.1000E-05
  Convergence accuracy of self-consistent charge density:  0.1000E-05
  Geometry relaxation: Modified BFGS - TRM (trust radius method, i.e., trusted quadratic extrapolation).
  Geometry relaxation: Modified BFGS - TRM (trust radius method, i.e., trusted quadratic extrapolation).
  Convergence accuracy for geometry relaxation: Maximum force <   0.100000E-01 eV/A.
  Convergence accuracy for geometry relaxation: Maximum force <   0.100000E-01 eV/A.
  Found k-point grid:         2         2         2
  Kohn-Sham eigenvalues and eigenfunctions calculated by the ELPA eigensolver library.
  List of k-points will be written out.
  Found k-point grid:         2         2         2

  Kohn-Sham eigenvalues and eigenfunctions calculated by the ELPA eigensolver library.
  Plot band    1
  List of k-points will be written out.
  | begin  0.000000  0.000000  0.000000
  | end    0.000000  0.000000  0.500000
  | number of points:    2

  Plot band    2

  | begin  0.000000  0.500000  0.000000
  | end    0.000000  0.500000  0.500000
  | number of points:    2

  Plot band    3
  Plot band    1
  | begin  0.500000  0.000000  0.000000
  | end    0.500000  0.000000  0.500000
  | number of points:    2
  | begin  0.000000  0.000000  0.000000
  | end    0.000000  0.000000  0.500000

  Plot band    4
  | number of points:    2
  | begin  0.500000  0.500000  0.000000

  Plot band    2
  | end    0.500000  0.500000  0.500000
  | number of points:    2
  Kohn-Sham eigenvectors will be written out.
  | begin  0.000000  0.500000  0.000000
  | end    0.000000  0.500000  0.500000
  | number of points:    2

  The overlap matrix will be written out for the k-points requested by 'output band'.
  The hamiltonian matrix will be written out for the k-points requested by 'output band'.
  Plot band    3

  | begin  0.500000  0.000000  0.000000
  | end    0.500000  0.000000  0.500000
  | number of points:    2

  Reading configuration options for species H                   .
  Plot band    4
  | begin  0.500000  0.500000  0.000000
  | end    0.500000  0.500000  0.500000
  | number of points:    2
  Kohn-Sham eigenvectors will be written out.
  The overlap matrix will be written out for the k-points requested by 'output band'.
  The hamiltonian matrix will be written out for the k-points requested by 'output band'.
  | Found nuclear charge :   1.0000
  | Found atomic mass :    1.0079400000000001      amu

  | Found l_max for Hartree potential  :   4
  Reading configuration options for species H                   .
  | Found cutoff potl. onset [A], width [A], scale factor :    3.50000    1.50000    1.00000
  | Threshold for basis-dependent cutoff potential is   0.100000E-03
  | Found nuclear charge :   1.0000
  | Found atomic mass :    1.0079400000000001      amu
  | Found l_max for Hartree potential  :   4
  | Found data for basic radial integration grid :    24 points, outermost radius =    5.000 A
  | Found multiplier for basic radial grid :   1
  | Found cutoff potl. onset [A], width [A], scale factor :    3.50000    1.50000    1.00000
  | Found angular grid specification: user-specified.
  | Threshold for basis-dependent cutoff potential is   0.100000E-03
  | Found data for basic radial integration grid :    24 points, outermost radius =    5.000 A
  | Found multiplier for basic radial grid :   1
  | Found angular grid specification: user-specified.
  | Specified grid contains     5 separate shells.
  | Check grid settings after all constraints further below.
  | Found explicit parameters for TS-vdw correction:
  | Specified grid contains     5 separate shells.
  | Check grid settings after all constraints further below.
  | Found explicit parameters for TS-vdw correction:
  |    C6    =   6.500000
  |    C6    =   6.500000
  |    alpha =   4.500000
  |    R0    =   3.100000
  |    alpha =   4.500000
  |    R0    =   3.100000
  | Found free-atom valence shell :  1 s   1.000
  | Found free-ion valence shell :  1 s   0.500
  | Found free-atom valence shell :  1 s   1.000
  | Found hydrogenic basis function :  2 s   2.100
  | Found hydrogenic basis function :  2 p   3.500
  | Found free-ion valence shell :  1 s   0.500
  Species H                   : Missing cutoff potential type.
  Defaulting to exp(1/x)/(1-x)^2 type cutoff potential.
  | Found hydrogenic basis function :  2 s   2.100
  Species H : No 'logarithmic' tag. Using default grid for free atom:
  | Default logarithmic grid data [bohr] : 0.1000E-03 0.1000E+03 0.1012E+01
  Species H : On-site basis accuracy parameter (for Gram-Schmidt orthonormalisation) not specified.
  Using default value basis_acc =  0.1000000E-03.
  Species H                   : Using default innermost maximum threshold i_radial=  2 for radial functions.
  Species H                   : Default cutoff onset for free atom density etc. : 0.35000000E+01 AA.
  Species H                   : Basic radial grid will be enhanced according to radial_multiplier =   1, to contain    24 grid points.

  Reading configuration options for species Pd                  .
  | Found nuclear charge :  46.0000
  | Found hydrogenic basis function :  2 p   3.500
  | Found atomic mass :    106.42000000000000      amu
  | Found l_max for Hartree potential  :   4
  | Found cutoff potl. onset [A], width [A], scale factor :    3.50000    1.50000    1.00000
  | Threshold for basis-dependent cutoff potential is   0.100000E-03
  | Found data for basic radial integration grid :    62 points, outermost radius =    5.000 A
  | Found multiplier for basic radial grid :   1
  | Found angular grid specification: user-specified.
  Species H                   : Missing cutoff potential type.
  Defaulting to exp(1/x)/(1-x)^2 type cutoff potential.
  Species H : No 'logarithmic' tag. Using default grid for free atom:
  | Default logarithmic grid data [bohr] : 0.1000E-03 0.1000E+03 0.1012E+01
  | Specified grid contains     5 separate shells.
  | Check grid settings after all constraints further below.
  | Found explicit parameters for TS-vdw correction:
  |    C6    = 102.000000
  |    alpha =  13.900000
  |    R0    =   3.060000
  Species H : On-site basis accuracy parameter (for Gram-Schmidt orthonormalisation) not specified.
  | Found free-atom valence shell :  5 s   1.000
  Using default value basis_acc =  0.1000000E-03.
  Species H                   : Using default innermost maximum threshold i_radial=  2 for radial functions.
  | Found free-atom valence shell :  4 p   6.000
  Species H                   : Default cutoff onset for free atom density etc. : 0.35000000E+01 AA.
  | Found free-atom valence shell :  4 d   9.000
  Species H                   : Basic radial grid will be enhanced according to radial_multiplier =   1, to contain    24 grid points.
  | Found free-ion valence shell :  5 s   0.000

  Reading configuration options for species Pd                  .
  | Found free-ion valence shell :  4 p   6.000
  | Found free-ion valence shell :  4 d   8.000
  | Found nuclear charge :  46.0000
  | Found ionic basis function :  5 p , default cutoff radius.
  | Found hydrogenic basis function :  4 f   8.000
  | Found hydrogenic basis function :  3 s   2.600
  | Found hydrogenic basis function :  3 d   2.500
  | Found atomic mass :    106.42000000000000      amu
  Species Pd                  : Missing cutoff potential type.
  Defaulting to exp(1/x)/(1-x)^2 type cutoff potential.
  Species Pd: No 'logarithmic' tag. Using default grid for free atom:
  | Found l_max for Hartree potential  :   4
  | Default logarithmic grid data [bohr] : 0.1000E-03 0.1000E+03 0.1012E+01
  | Will include ionic basis functions of  2.0-fold positive Pd                   ion.
  | Found cutoff potl. onset [A], width [A], scale factor :    3.50000    1.50000    1.00000
  Species Pd: On-site basis accuracy parameter (for Gram-Schmidt orthonormalisation) not specified.
  Using default value basis_acc =  0.1000000E-03.
  Species Pd                  : Using default innermost maximum threshold i_radial=  2 for radial functions.
  Species Pd                  : Default cutoff onset for free atom density etc. : 0.35000000E+01 AA.
  | Threshold for basis-dependent cutoff potential is   0.100000E-03
  Species Pd                  : Basic radial grid will be enhanced according to radial_multiplier =   1, to contain    62 grid points.

  Finished reading input file 'control.in'. Consistency checks are next.
  | Found data for basic radial integration grid :    62 points, outermost radius =    5.000 A

  Target number of points in a grid batch is not set. Defaulting to  100
  Method for grid partitioning is not set. Defaulting to parallel hash+maxmin partitioning.
  Batch size limit is not set. Defaulting to    200
  By default, will store active basis functions for each batch.
  If in need of memory, prune_basis_once .false. can be used to disable this option.
  communication_type for Hartree potential was not specified.
  Defaulting to calc_hartree .
  Defaulting to Pulay charge density mixer.
  Pulay mixer: Number of relevant iterations not set.
  Defaulting to    8 iterations.
  Pulay mixer: Number of initial linear mixing iterations not set.
  Defaulting to    0 iterations.
  Work space size for distributed Hartree potential not set.
  Defaulting to   0.200000E+03 MB.
  Mixing parameter for charge density mixing has not been set.
  Using default: charge_mix_param =     0.2000.
  Mixing parameter for spin density mixing has not been set.
  Using charge_mix_param as default:     0.2000.
  Algorithm-dependent basis array size parameters:
  | n_max_pulay                         :        8
  No maximum number of relaxation steps, defaulting to     1000
  Default initial Hessian is Lindh matrix (thres = 15.00) plus  0.200000E+01 eV/A^2 times unity.
  | Found multiplier for basic radial grid :   1
  | Found angular grid specification: user-specified.
  No maximum energy tolerance for TRM/BFGS moves, defaulting to   0.200000E-03
  No harmonic length scale. Defaulting to   0.250000E-01 A.
  No trust radius initializer. Defaulting to   0.200000E+00 A.
  | Specified grid contains     5 separate shells.
  | Check grid settings after all constraints further below.
  Handling of forces: Unphysical translation and rotation will be removed from forces.
  | Found explicit parameters for TS-vdw correction:
  No accuracy limit for integral partition fn. given. Defaulting to  0.1000E-14.
  No threshold value for u(r) in integrations given. Defaulting to  0.1000E-05.
  No accuracy for occupation numbers given. Defaulting to  0.1000E-07.
  No threshold value for occupation numbers given. Defaulting to  0.0000E+00.
  No accuracy for fermi level given. Defaulting to  0.1000E-19.
  Maximum # of iterations to find E_F not set. Defaulting to  200.
* WARNING: Requested Scalapack run without having it compiled into the binary.
* Using lapack_fast instead.
  Preferred method for the MBD eigenvalue solver ('mbd_eigensolver') not specified in 'control.in'.
  Serial version of FHI-aims: dafault is LAPACK.
  Will not use alltoall communication since running on < 1024 CPUs.
  Output of Kohn-Sham eigenvector components into separate files was explicitly requested.
  | Periodic system: Eigenvector output will happen at the very end of the run, for
  | those bands whose output was requested.
  Threshold for basis singularities not set.
  Default threshold for basis singularities:  0.1000E-04
  partition_type (choice of integration weights) for integrals was not specified.
  | Using a version of the partition function of Stratmann and coworkers ('stratmann_smoother').
  | At each grid point, the set of atoms used to build the partition table is smoothly restricted to
  | only those atoms whose free-atom density would be non-zero at that grid point.
  Partitioning for Hartree potential was not defined. Using partition_type for integrals.
[...]
  | This appears to be a direct band gap.
  The gap value is above 0.2 eV. Unless you are using a very sparse k-point grid,
  this system is most likely an insulator or a semiconductor.

  Total energy components:
  | Sum of eigenvalues            :          -0.76286901 Ha         -20.75872183 eV
  | XC energy correction          :          -0.68738592 Ha         -18.70472252 eV
  | XC potential correction       :           0.88239278 Ha          24.01112925 eV
  | Free-atom electrostatic energy:          -0.35199477 Ha          -9.57826498 eV
  | Hartree energy correction     :          -0.24657573 Ha          -6.70966707 eV
  | Entropy correction            :          -0.00000000 Ha          -0.00000000 eV
  | ---------------------------
  | Total energy                  :          -1.16643264 Ha         -31.74024715 eV
  | Total energy, T -> 0          :          -1.16643264 Ha         -31.74024715 eV  <-- do not rely on this value for anything but (periodic) metals
  | Electronic free energy        :          -1.16643264 Ha         -31.74024715 eV

  Derived energy quantities:
  | Kinetic energy                :           1.13289449 Ha          30.82762757 eV
  | Electrostatic energy          :          -1.61194122 Ha         -43.86315220 eV
  | Energy correction for multipole
  | error in Hartree potential    :          -0.00107521 Ha          -0.02925808 eV
  | Sum of eigenvalues per atom                           :         -10.37936091 eV
  | Total energy (T->0) per atom                          :         -15.87012357 eV  <-- do not rely on this value for anything but (periodic) metals
  | Electronic free energy per atom                       :         -15.87012357 eV

  atomic forces [eV/Ang]:
  -----------------------
  atom #    1
   Hellmann-Feynman              : -0.360574E-14 -0.728771E-14 -0.128620E+00
   Ionic forces                  :  0.000000E+00  0.000000E+00  0.000000E+00
   Multipole                     :  0.495111E-17  0.306601E-15  0.379805E-01
   Pulay + GGA                   :  0.268661E-13  0.122167E-13  0.967623E-01
   ----------------------------------------------------------------
   Total forces(   1)            :  0.232653E-13  0.523555E-14  0.612240E-02
  atom #    2
   Hellmann-Feynman              : -0.485419E-14 -0.311024E-14  0.128620E+00
   Ionic forces                  :  0.000000E+00  0.000000E+00  0.000000E+00
   Multipole                     :  0.246650E-15 -0.859147E-15 -0.379805E-01
   Pulay + GGA                   :  0.207384E-13  0.411049E-14 -0.967623E-01
   ----------------------------------------------------------------
   Total forces(   2)            :  0.161309E-13  0.141101E-15 -0.612243E-02


  Self-consistency convergence accuracy:
  | Change of charge/spin density :  0.9876E-09  0.4122E-15
  | Change of sum of eigenvalues  : -0.1356E-06 eV
  | Change of total energy        : -0.1231E-10 eV
  | Change of forces              :  0.1239E-06 eV/A

  Writing Kohn-Sham eigenvalues.

  Spin-up eigenvalues:
  K-point:       1 at    0.000000    0.000000    0.000000 (in units of recip. lattice)

  State    Occupation    Eigenvalue [Ha]    Eigenvalue [eV]
      1       1.00000          -0.381435          -10.37936
      2       0.00000           0.057750            1.57145
      3       0.00000           0.332710            9.05350
      4       0.00000           0.705470           19.19682

  Spin-down eigenvalues:
  K-point:       1 at    0.000000    0.000000    0.000000 (in units of recip. lattice)

  State    Occupation    Eigenvalue [Ha]    Eigenvalue [eV]
      1       1.00000          -0.381435          -10.37936
      2       0.00000           0.057750            1.57145
      3       0.00000           0.332710            9.05350
      4       0.00000           0.705470           19.19682

  Current spin moment of the entire structure :
  | N = N_up - N_down (sum over all k points):         0.00000
  | S (sum over all k points)                :         0.00000

  What follows are estimated values for band gap, HOMO, LUMO, etc.
  | They are estimated on a discrete k-point grid and not necessarily exact.
  | For converged numbers, create a DOS and/or band structure plot on a denser k-grid.

  Highest occupied state (VBM) at    -10.37936091 eV (relative to internal zero)
  | Occupation number:      1.00000000
  | K-point:       1 at    0.000000    0.000000    0.000000 (in units of recip. lattice)
  | Spin channel:        1

  Lowest unoccupied state (CBM) at     1.57145217 eV (relative to internal zero)
  | Occupation number:      0.00000000
  | K-point:       1 at    0.000000    0.000000    0.000000 (in units of recip. lattice)
  | Spin channel:        1

  ESTIMATED overall HOMO-LUMO gap:     11.95081308 eV between HOMO at k-point 1 and LUMO at k-point 1
  | This appears to be a direct band gap.
  The gap value is above 0.2 eV. Unless you are using a very sparse k-point grid,
  this system is most likely an insulator or a semiconductor.

  Self-consistency cycle converged.

  End self-consistency iteration #    13       :  max(cpu_time)    wall_clock(cpu1)
  | Time for this iteration                    :        1.294 s           1.295 s
  | Charge density & force component update    :        0.455 s           0.455 s
  | Density mixing                             :        0.013 s           0.013 s
  | Hartree multipole update                   :        0.004 s           0.004 s
  | Hartree multipole summation                :        0.733 s           0.734 s
  | Integration                                :        0.086 s           0.086 s
  | Solution of K.-S. eqns.                    :        0.002 s           0.002 s
  | Total energy evaluation                    :        0.001 s           0.001 s
------------------------------------------------------------
  Removing unitary transformations (pure translations, rotations) from forces on atoms.
  Atomic forces before filtering:
  | Net force on center of mass :   0.393962E-13  0.537665E-14 -0.253985E-07 eV/A
  Atomic forces after filtering:
  | Net force on center of mass :   0.253530E-29  0.950739E-30  0.000000E+00 eV/A

  Energy and forces in a compact form:
  | Total energy uncorrected      :         -0.317402471471627E+02 eV
  | Total energy corrected        :         -0.317402471471627E+02 eV  <-- do not rely on this value for anything but (periodic) metals
  | Electronic free energy        :         -0.317402471471627E+02 eV
  Total atomic forces (unitary forces cleaned) [eV/Ang]:
  |   1          0.356721599160042E-14          0.254722524737063E-14          0.612241323520809E-02
  |   2         -0.356721599160042E-14         -0.254722524737062E-14         -0.612241323520809E-02

  ------------------------------------ 
  Start decomposition of the XC Energy 
  ------------------------------------ 
  Hartree-Fock part   :          0.000000000 Ha              0.000000000 eV
  ------------------------------------ 
  X Energy            :         -0.644592979 Ha            -17.540267393 eV
  C Energy GGA        :         -0.042792939 Ha             -1.164455128 eV
  Total XC Energy     :         -0.687385918 Ha            -18.704722521 eV
  LDA X and C from self-consistent density 
  X Energy LDA        :         -0.563441031 Ha            -15.332010539 eV
  C Energy LDA        :         -0.094214656 Ha             -2.563711223 eV
  ------------------------------------ 
  End decomposition of the XC Energy 
  ------------------------------------ 
  Relaxation / MD: End force evaluation.       :  max(cpu_time)    wall_clock(cpu1)
  | Time for this force evaluation             :       11.160 s          11.170 s

------------------------------------------------------------
  Geometry optimization: Attempting to predict improved coordinates.

  Removing unitary transformations (pure translations, rotations) from forces on atoms.
  Atomic forces before filtering:
  | Net force on center of mass :   0.253530E-29  0.950739E-30  0.000000E+00 eV/A
  Atomic forces after filtering:
  | Net force on center of mass :   0.000000E+00  0.316913E-30  0.000000E+00 eV/A
  Net remaining forces (excluding translations, rotations) in present geometry:
  Maximum force component is  0.612241E-02 eV/A.
  Present geometry is converged.

------------------------------------------------------------
  Final atomic structure:
                         x [A]             y [A]             z [A]
  lattice_vector        10.00000000        0.00000000        0.00000000
  lattice_vector         0.00000000       10.00000000        0.00000000
  lattice_vector         0.00000000        0.00000000       10.00000000

            atom         1.39300036        1.39300036        1.52494116  H
            atom         1.39300036        1.39300036        2.27505884  H

  Fractional coordinates:
                         L1                L2                L3
       atom_frac         0.13930004        0.13930004        0.15249412  H
       atom_frac         0.13930004        0.13930004        0.22750588  H
------------------------------------------------------------

  -------------------------------------------------------------------
  Writing the requested band structure output:
  -------------------------------------------------------------------

  Integrating Hamiltonian matrix: batch-based integration.
  Time summed over all CPUs for integration: real work        0.086 s, elapsed        0.086 s

  Treating all    2 k-points in band plot segment #   1:

  | Writing complex overlap matrix: File KS_overlap_matrix.band_1.kpt_1.out
  | ... finished writing complex overlap matrix: File KS_overlap_matrix.band_1.kpt_1.out
  | Writing complex hamiltonian matrix: File KS_hamiltonian_matrix.band_1.kpt_1.out
  | ... finished writing complex hamiltonian matrix: File KS_hamiltonian_matrix.band_1.kpt_1.out
  | Writing complex overlap matrix: File KS_overlap_matrix.band_1.kpt_2.out
  | ... finished writing complex overlap matrix: File KS_overlap_matrix.band_1.kpt_2.out
  | Writing complex hamiltonian matrix: File KS_hamiltonian_matrix.band_1.kpt_2.out
  | ... finished writing complex hamiltonian matrix: File KS_hamiltonian_matrix.band_1.kpt_2.out

  "Band gap" along reciprocal space direction number:    1
  | Lowest unoccupied state:       1.57145217 eV
  | Highest occupied state :     -10.37936091 eV
  | Energy difference      :      11.95081308 eV

  Kohn-Sham eigenvectors for band number   1 will be written to files.
  | Writing complex Kohn-Sham eigenvectors: File KS_eigenvectors_up.band_1.kpt_1.out
  | Writing complex Kohn-Sham eigenvectors: File KS_eigenvectors_dn.band_1.kpt_1.out
  | Writing complex Kohn-Sham eigenvectors: File KS_eigenvectors_up.band_1.kpt_2.out
  | Writing complex Kohn-Sham eigenvectors: File KS_eigenvectors_dn.band_1.kpt_2.out

  Treating all    2 k-points in band plot segment #   2:

  | Writing complex overlap matrix: File KS_overlap_matrix.band_2.kpt_1.out
  | ... finished writing complex overlap matrix: File KS_overlap_matrix.band_2.kpt_1.out
  | Writing complex hamiltonian matrix: File KS_hamiltonian_matrix.band_2.kpt_1.out
  | ... finished writing complex hamiltonian matrix: File KS_hamiltonian_matrix.band_2.kpt_1.out
  | Writing complex overlap matrix: File KS_overlap_matrix.band_2.kpt_2.out
  | ... finished writing complex overlap matrix: File KS_overlap_matrix.band_2.kpt_2.out
  | Writing complex hamiltonian matrix: File KS_hamiltonian_matrix.band_2.kpt_2.out
  | ... finished writing complex hamiltonian matrix: File KS_hamiltonian_matrix.band_2.kpt_2.out

  "Band gap" along reciprocal space direction number:    2
  | Lowest unoccupied state:       1.57145217 eV
  | Highest occupied state :     -10.37936091 eV
  | Energy difference      :      11.95081308 eV

  Kohn-Sham eigenvectors for band number   2 will be written to files.
  | Writing complex Kohn-Sham eigenvectors: File KS_eigenvectors_up.band_2.kpt_1.out
  | Writing complex Kohn-Sham eigenvectors: File KS_eigenvectors_dn.band_2.kpt_1.out
  | Writing complex Kohn-Sham eigenvectors: File KS_eigenvectors_up.band_2.kpt_2.out
  | Writing complex Kohn-Sham eigenvectors: File KS_eigenvectors_dn.band_2.kpt_2.out

  Treating all    2 k-points in band plot segment #   3:

  | Writing complex overlap matrix: File KS_overlap_matrix.band_3.kpt_1.out
  | ... finished writing complex overlap matrix: File KS_overlap_matrix.band_3.kpt_1.out
  | Writing complex hamiltonian matrix: File KS_hamiltonian_matrix.band_3.kpt_1.out
  | ... finished writing complex hamiltonian matrix: File KS_hamiltonian_matrix.band_3.kpt_1.out
  | Writing complex overlap matrix: File KS_overlap_matrix.band_3.kpt_2.out
  | ... finished writing complex overlap matrix: File KS_overlap_matrix.band_3.kpt_2.out
  | Writing complex hamiltonian matrix: File KS_hamiltonian_matrix.band_3.kpt_2.out
  | ... finished writing complex hamiltonian matrix: File KS_hamiltonian_matrix.band_3.kpt_2.out

  "Band gap" along reciprocal space direction number:    3
  | Lowest unoccupied state:       1.57145217 eV
  | Highest occupied state :     -10.37936091 eV
  | Energy difference      :      11.95081308 eV

  Kohn-Sham eigenvectors for band number   3 will be written to files.
  | Writing complex Kohn-Sham eigenvectors: File KS_eigenvectors_up.band_3.kpt_1.out
  | Writing complex Kohn-Sham eigenvectors: File KS_eigenvectors_dn.band_3.kpt_1.out
  | Writing complex Kohn-Sham eigenvectors: File KS_eigenvectors_up.band_3.kpt_2.out
  | Writing complex Kohn-Sham eigenvectors: File KS_eigenvectors_dn.band_3.kpt_2.out

  Treating all    2 k-points in band plot segment #   4:

  | Writing complex overlap matrix: File KS_overlap_matrix.band_4.kpt_1.out
  | ... finished writing complex overlap matrix: File KS_overlap_matrix.band_4.kpt_1.out
  | Writing complex hamiltonian matrix: File KS_hamiltonian_matrix.band_4.kpt_1.out
  | ... finished writing complex hamiltonian matrix: File KS_hamiltonian_matrix.band_4.kpt_1.out
  | Writing complex overlap matrix: File KS_overlap_matrix.band_4.kpt_2.out
  | ... finished writing complex overlap matrix: File KS_overlap_matrix.band_4.kpt_2.out
  | Writing complex hamiltonian matrix: File KS_hamiltonian_matrix.band_4.kpt_2.out
  | ... finished writing complex hamiltonian matrix: File KS_hamiltonian_matrix.band_4.kpt_2.out

  "Band gap" along reciprocal space direction number:    4
  | Lowest unoccupied state:       1.57145217 eV
  | Highest occupied state :     -10.37936091 eV
  | Energy difference      :      11.95081308 eV

  Kohn-Sham eigenvectors for band number   4 will be written to files.
  | Writing complex Kohn-Sham eigenvectors: File KS_eigenvectors_up.band_4.kpt_1.out
  | Writing complex Kohn-Sham eigenvectors: File KS_eigenvectors_dn.band_4.kpt_1.out
  | Writing complex Kohn-Sham eigenvectors: File KS_eigenvectors_up.band_4.kpt_2.out
  | Writing complex Kohn-Sham eigenvectors: File KS_eigenvectors_dn.band_4.kpt_2.out
  "Band gap" of total set of bands:
  | Lowest unoccupied state:       1.57145217 eV
  | Highest occupied state :     -10.37936091 eV
  | Energy difference      :      11.95081308 eV


------------------------------------------------------------------------------
  Final output of selected total energy values:

  The following output summarizes some interesting total energy values
  at the end of a run (AFTER all relaxation, molecular dynamics, etc.).

  | Total energy of the DFT / Hartree-Fock s.c.f. calculation      :            -31.740247147 eV
  | Final zero-broadening corrected energy (caution - metals only) :            -31.740247147 eV
  | For reference only, the value of 1 Hartree used in FHI-aims is :             27.211384500 eV

  Before relying on these values, please be sure to understand exactly which
  total energy value is referred to by a given number. Different objects may
  all carry the same name 'total energy'. Definitions:

  Total energy of the DFT / Hartree-Fock s.c.f. calculation:
  | Note that this energy does not include ANY quantities calculated after the
  | s.c.f. cycle, in particular not ANY RPA, MP2, etc. many-body perturbation terms.

  Final zero-broadening corrected energy:
  | For metallic systems only, a broadening of the occupation numbers at the Fermi
  | level can be extrapolated back to zero broadening by an electron-gas inspired
  | formula. For all systems that are not real metals, this value can be
  | meaningless and should be avoided.

------------------------------------------------------------------------------
  Methods described in the following list of references were used in this FHI-aims run.
  If you publish the results, please make sure to cite these reference if they apply.
  FHI-aims is an academic code, and for our developers (often, Ph.D. students
  and postdocs), scientific credit in the community is essential.
  Thank you for helping us!

  For any use of FHI-aims, please cite:

    Volker Blum, Ralf Gehrke, Felix Hanke, Paula Havu, Ville Havu,
    Xinguo Ren, Karsten Reuter, and Matthias Scheffler
    'Ab initio molecular simulations with numeric atom-centered orbitals'
    Computer Physics Communications 180, 2175-2196 (2009)
    http://dx.doi.org/10.1016/j.cpc.2009.06.022


  For the real-space grid partitioning and parallelization used in this calculation, please cite:

    Ville Havu, Volker Blum, Paula Havu, and Matthias Scheffler,
    'Efficient O(N) integration for all-electron electronic structure calculation'
    'using numerically tabulated basis functions'
    Journal of Computational Physics 228, 8367-8379 (2009).
    http://dx.doi.org/10.1016/j.jcp.2009.08.008

  Of course, there are many other important community references, e.g., those cited in the
  above references. Our list is limited to references that describe implementations in the
  FHI-aims code. The reason is purely practical (length of this list) - please credit others as well.

 * A warning was issued further up regarding the accuracy of onsite integrals.
   An integral with a negative eigenvalue was among the flagged integrals.
   In most standard situations, this warning is probably harmless.
   If needed, this can be verified by adjusting the radial_multiplier flag.

------------------------------------------------------------
          Leaving FHI-aims.
          Date     :  20150408, Time     :  160106.163

          Computational steps:
          | Number of self-consistency cycles          :           13
          | Number of relaxation steps                 :            0

          Detailed time accounting                     :  max(cpu_time)    wall_clock(cpu1)
          | Total time                                 :       11.970 s          11.985 s
          | Preparation time                           :        0.688 s           0.692 s
          | Grid partitioning                          :        0.106 s           0.106 s
          | Preloading free-atom quantities on grid    :        0.012 s           0.012 s
          | Free-atom superposition energy             :        0.031 s           0.031 s
          | Total time for integrations                :        1.232 s           1.233 s
          | Total time for solution of K.-S. equations :        0.032 s           0.032 s
          | Total time for EV reorthonormalization     :        0.000 s           0.000 s
          | Total time for density & force components  :        1.615 s           1.617 s
          | Total time for mixing & preconditioning    :        0.640 s           0.643 s
          | Total time for Hartree multipole update    :        0.048 s           0.049 s
          | Total time for Hartree multipole sum       :        6.692 s           6.693 s
          | Total time for total energy evaluation     :        0.005 s           0.009 s
          | Total time for scaled ZORA corrections     :        0.000 s           0.000 s

          Have a nice day.
------------------------------------------------------------
